##File Type: Far field
##File Format: 7
##Source: router
##Date: 2021-01-09 15:00:28  
** File exported by Altair Feko - Solver (par) Version 2020-444 from 2020-05-13


#Configuration Name: StandardConfiguration1
#Request Name: FarField3d
#Frequency:   2.40000000E+009
#Coordinate System: Spherical
#No. of Theta Samples: 37
#No. of Phi Samples: 73
#Result Type: Directivity
#No. of Header Lines: 1
#       "Theta"             "Phi"           "Re(Etheta)"       "Im(Etheta)"        "Re(Ephi)"         "Im(Ephi)"   "Directivity(Theta)" "Directivity(Phi)" "Directivity(Total)"
    0.00000000E+000    0.00000000E+000   -1.78943486E-007    9.19929655E-008   -1.78943486E-007    9.19929655E-008   -1.28357082E+002   -1.28357082E+002   -1.25346782E+002
    5.00000000E+000    0.00000000E+000    2.21454938E-002    3.94416618E-002   -1.81648019E-007   -6.52092326E-009   -2.13206603E+001   -1.29239653E+002   -2.13206603E+001
    1.00000000E+001    0.00000000E+000    4.44450295E-002    7.90591782E-002   -1.18607136E-007   -9.02408603E-008   -1.52781238E+001   -1.30964166E+002   -1.52781238E+001
    1.50000000E+001    0.00000000E+000    6.70334493E-002    1.19001130E-001   -2.04777490E-008   -1.24282921E-007   -1.17219651E+001   -1.32425300E+002   -1.17219651E+001
    2.00000000E+001    0.00000000E+000    9.00089632E-002    1.59361885E-001    6.69314168E-008   -1.03264887E-007   -9.17969410E+000   -1.32627611E+002   -9.17969410E+000
    2.50000000E+001    0.00000000E+000    1.13416127E-001    2.00157034E-001    1.07418910E-007   -5.10056567E-008   -7.19316471E+000   -1.32925243E+002   -7.19316471E+000
    3.00000000E+001    0.00000000E+000    1.37230990E-001    2.41301923E-001    9.24707829E-008   -3.22067267E-009   -5.56162843E+000   -1.35104504E+002   -5.56162843E+000
    3.50000000E+001    0.00000000E+000    1.61349210E-001    2.82594768E-001    4.25842475E-008    1.48108594E-008   -4.18117231E+000   -1.41348957E+002   -4.18117231E+000
    4.00000000E+001    0.00000000E+000    1.85578289E-001    3.23705977E-001   -7.70718574E-009    1.33901811E-009   -2.99269211E+000   -1.56562794E+002   -2.99269211E+000
    4.50000000E+001    0.00000000E+000    2.09635170E-001    3.64175374E-001   -3.09485016E-008   -2.51621966E-008   -1.96067590E+000   -1.42413306E+002   -1.96067590E+000
    5.00000000E+001    0.00000000E+000    2.33150277E-001    4.03418855E-001   -2.10372686E-008   -4.15426712E-008   -1.06314528E+000   -1.41068546E+002   -1.06314528E+000
    5.50000000E+001    0.00000000E+000    2.55678732E-001    4.40745502E-001    6.95344993E-009   -3.59814887E-008   -2.86341205E-001   -1.43149042E+002   -2.86341205E-001
    6.00000000E+001    0.00000000E+000    2.76718908E-001    4.75385379E-001    2.94794822E-008   -1.37269987E-008    3.78321296E-001   -1.44187178E+002    3.78321296E-001
    6.50000000E+001    0.00000000E+000    2.95737732E-001    5.06527086E-001    3.04909460E-008    9.76663976E-009    9.36109376E-001   -1.44322261E+002    9.36109376E-001
    7.00000000E+001    0.00000000E+000    3.12201332E-001    5.33362979E-001    1.05668707E-008    2.14843088E-008    1.39015667E+000   -1.46846538E+002    1.39015667E+000
    7.50000000E+001    0.00000000E+000    3.25608834E-001    5.55138779E-001   -1.54677391E-008    1.92316785E-008    1.74224278E+000   -1.46582914E+002    1.74224278E+000
    8.00000000E+001    0.00000000E+000    3.35526459E-001    5.71203414E-001   -2.96044129E-008    1.02916585E-008    1.99331431E+000   -1.44507244E+002    1.99331431E+000
    8.50000000E+001    0.00000000E+000    3.41618689E-001    5.81054467E-001   -2.26917477E-008    3.11788574E-009    2.14383140E+000   -1.47231274E+002    2.14383140E+000
    9.00000000E+001    0.00000000E+000    3.43673344E-001    5.84374658E-001    6.75299537E-012    4.32919567E-013    2.19398845E+000   -2.17822119E+002    2.19398845E+000
    9.50000000E+001    0.00000000E+000    3.41617827E-001    5.81055486E-001    2.27005113E-008   -3.11772939E-009    2.14383709E+000   -1.47227990E+002    2.14383709E+000
    1.00000000E+002    0.00000000E+000    3.35524769E-001    5.71205413E-001    2.96023852E-008   -1.02928312E-008    1.99332568E+000   -1.44507668E+002    1.99332568E+000
    1.05000000E+002    0.00000000E+000    3.25606384E-001    5.55141679E-001    1.54567003E-008   -1.92332251E-008    1.74225980E+000   -1.46584924E+002    1.74225980E+000
    1.10000000E+002    0.00000000E+000    3.12198216E-001    5.33366668E-001   -1.05785997E-008   -2.14845798E-008    1.39017929E+000   -1.46844572E+002    1.39017929E+000
    1.15000000E+002    0.00000000E+000    2.95734068E-001    5.06531424E-001   -3.04946249E-008   -9.76498964E-009    9.36137503E-001   -1.44321447E+002    9.36137503E-001
    1.20000000E+002    0.00000000E+000    2.76714830E-001    4.75390210E-001   -2.94725606E-008    1.37294393E-008    3.78354830E-001   -1.44188579E+002    3.78354830E-001
    1.25000000E+002    0.00000000E+000    2.55674383E-001    4.40750656E-001   -6.94184611E-009    3.59829265E-008   -2.86302405E-001   -1.43149229E+002   -2.86302405E-001
    1.30000000E+002    0.00000000E+000    2.33145803E-001    4.03424160E-001    2.10430930E-008    4.15427749E-008   -1.06310140E+000   -1.41068038E+002   -1.06310140E+000
    1.35000000E+002    0.00000000E+000    2.09630714E-001    3.64180660E-001    3.09411971E-008    2.51631549E-008   -1.96062716E+000   -1.42414408E+002   -1.96062716E+000
    1.40000000E+002    0.00000000E+000    1.85573986E-001    3.23711084E-001    7.68868635E-009   -1.33395033E-009   -2.99263879E+000   -1.56584021E+002   -2.99263879E+000
    1.45000000E+002    0.00000000E+000    1.61345182E-001    2.82599551E-001   -4.26024668E-008   -1.48006753E-008   -4.18111475E+000   -1.41346286E+002   -4.18111475E+000
    1.50000000E+002    0.00000000E+000    1.37227344E-001    2.41306254E-001   -9.24739819E-008    3.23206395E-009   -5.56156703E+000   -1.35104167E+002   -5.56156703E+000
    1.55000000E+002    0.00000000E+000    1.13412954E-001    2.00160804E-001   -1.07398230E-007    5.10099273E-008   -7.19309992E+000   -1.32926474E+002   -7.19309992E+000
    1.60000000E+002    0.00000000E+000    9.00063380E-002    1.59365005E-001   -6.68903039E-008    1.03253438E-007   -9.17962644E+000   -1.32629868E+002   -9.17962644E+000
    1.65000000E+002    0.00000000E+000    6.70314307E-002    1.19003530E-001    2.05238566E-008    1.24252491E-007   -1.17218952E+001   -1.32426853E+002   -1.17218952E+001
    1.70000000E+002    0.00000000E+000    4.44436604E-002    7.90608059E-002    1.18637849E-007    9.01970368E-008   -1.52780522E+001   -1.30964288E+002   -1.52780522E+001
    1.75000000E+002    0.00000000E+000    2.21448024E-002    3.94424840E-002    1.81647912E-007    6.47693379E-009   -2.13205876E+001   -1.29239734E+002   -2.13205876E+001
    1.80000000E+002    0.00000000E+000   -1.78909544E-007    9.20220375E-008    1.78909544E-007   -9.20220375E-008   -1.28357811E+002   -1.28357811E+002   -1.25347511E+002
    0.00000000E+000    5.00000000E+000   -1.93858504E-007    9.96606197E-008   -1.62666600E-007    8.36251892E-008   -1.27661703E+002   -1.29185432E+002   -1.25346782E+002
    5.00000000E+000    5.00000000E+000    2.21454821E-002    3.94416523E-002   -1.63650228E-007   -1.37671456E-008   -2.13206630E+001   -1.30120901E+002   -2.13206630E+001
    1.00000000E+001    5.00000000E+000    4.44450366E-002    7.90591595E-002   -9.76590739E-008   -9.58798347E-008   -1.52781250E+001   -1.31704427E+002   -1.52781250E+001
    1.50000000E+001    5.00000000E+000    6.70334748E-002    1.19001120E-001    1.67974884E-009   -1.26965055E-007   -1.17219649E+001   -1.32355416E+002   -1.17219649E+001
    2.00000000E+001    5.00000000E+000    9.00089900E-002    1.59361892E-001    8.56211475E-008   -1.02292198E-007   -9.17969316E+000   -1.31926959E+002   -9.17969316E+000
    2.50000000E+001    5.00000000E+000    1.13416135E-001    2.00157054E-001    1.17404964E-007   -4.74870684E-008   -7.19316389E+000   -1.32378101E+002   -7.19316389E+000
    3.00000000E+001    5.00000000E+000    1.37230972E-001    2.41301939E-001    9.12218304E-008    2.31991999E-010   -5.56162828E+000   -1.35227856E+002   -5.56162828E+000
    3.50000000E+001    5.00000000E+000    1.61349177E-001    2.82594766E-001    3.22431903E-008    1.57256529E-008   -4.18117278E+000   -1.43334346E+002   -4.18117278E+000
    4.00000000E+001    5.00000000E+000    1.85578264E-001    3.23705959E-001   -2.10449044E-008   -9.16388944E-010   -2.99269276E+000   -1.47958694E+002   -2.99269276E+000
    4.50000000E+001    5.00000000E+000    2.09635170E-001    3.64175355E-001   -4.02968494E-008   -2.90533585E-008   -1.96067626E+000   -1.40506525E+002   -1.96067626E+000
    5.00000000E+001    5.00000000E+000    2.33150299E-001    4.03418850E-001   -2.20676871E-008   -4.48081533E-008   -1.06314516E+000   -1.40459584E+002   -1.06314516E+000
    5.50000000E+001    5.00000000E+000    2.55678757E-001    4.40745516E-001    1.39801939E-008   -3.77956922E-008   -2.86340788E-001   -1.42324106E+002   -2.86340788E-001
    6.00000000E+001    5.00000000E+000    2.76718917E-001    4.75385400E-001    4.03966258E-008   -1.58436726E-008    3.78321657E-001   -1.41681566E+002    3.78321657E-001
    6.50000000E+001    5.00000000E+000    2.95737715E-001    5.06527100E-001    3.98939805E-008    3.98207545E-009    9.36109433E-001   -1.42368657E+002    9.36109433E-001
    7.00000000E+001    5.00000000E+000    3.12201299E-001    5.33362979E-001    1.47706817E-008    9.65373572E-009    1.39015643E+000   -1.49497125E+002    1.39015643E+000
    7.50000000E+001    5.00000000E+000    3.25608804E-001    5.55138769E-001   -1.68062102E-008    2.38775460E-009    1.74224246E+000   -1.49833673E+002    1.74224246E+000
    8.00000000E+001    5.00000000E+000    3.35526448E-001    5.71203406E-001   -3.38519157E-008   -6.73604489E-009    1.99331414E+000   -1.43669552E+002    1.99331414E+000
    8.50000000E+001    5.00000000E+000    3.41618700E-001    5.81054467E-001   -2.61131887E-008   -7.65798806E-009    2.14383146E+000   -1.45734355E+002    2.14383146E+000
    9.00000000E+001    5.00000000E+000    3.43673363E-001    5.84374663E-001    7.86005890E-012   -4.14195478E-013    2.19398862E+000   -2.16509301E+002    2.19398862E+000
    9.50000000E+001    5.00000000E+000    3.41617838E-001    5.81055486E-001    2.61234966E-008    7.65671911E-009    2.14383716E+000   -1.45731312E+002    2.14383716E+000
    1.00000000E+002    5.00000000E+000    3.35524758E-001    5.71205404E-001    3.38498287E-008    6.73422028E-009    1.99332552E+000   -1.43670157E+002    1.99332552E+000
    1.05000000E+002    5.00000000E+000    3.25606354E-001    5.55141669E-001    1.67935470E-008   -2.38882734E-009    1.74225948E+000   -1.49840013E+002    1.74225948E+000
    1.10000000E+002    5.00000000E+000    3.12198182E-001    5.33366667E-001   -1.47846065E-008   -9.65240029E-009    1.39017905E+000   -1.49491748E+002    1.39017905E+000
    1.15000000E+002    5.00000000E+000    2.95734051E-001    5.06531439E-001   -3.98990799E-008   -3.97816573E-009    9.36137561E-001   -1.42367641E+002    9.36137561E-001
    1.20000000E+002    5.00000000E+000    2.76714838E-001    4.75390231E-001   -4.03894769E-008    1.58481559E-008    3.78355192E-001   -1.41682570E+002    3.78355192E-001
    1.25000000E+002    5.00000000E+000    2.55674408E-001    4.40750670E-001   -1.39668689E-008    3.77980752E-008   -2.86301989E-001   -1.42324620E+002   -2.86301989E-001
    1.30000000E+002    5.00000000E+000    2.33145825E-001    4.03424154E-001    2.20756095E-008    4.48076959E-008   -1.06310128E+000   -1.40459046E+002   -1.06310128E+000
    1.35000000E+002    5.00000000E+000    2.09630714E-001    3.64180640E-001    4.02905795E-008    2.90525848E-008   -1.96062752E+000   -1.40507493E+002   -1.96062752E+000
    1.40000000E+002    5.00000000E+000    1.85573961E-001    3.23711066E-001    2.10254351E-008    9.19491094E-010   -2.99263944E+000   -1.47966662E+002   -2.99263944E+000
    1.45000000E+002    5.00000000E+000    1.61345148E-001    2.82599550E-001   -3.22643166E-008   -1.57166156E-008   -4.18111522E+000   -1.43330708E+002   -4.18111522E+000
    1.50000000E+002    5.00000000E+000    1.37227325E-001    2.41306271E-001   -9.12288748E-008   -2.20284398E-010   -5.56156688E+000   -1.35227188E+002   -5.56156688E+000
    1.55000000E+002    5.00000000E+000    1.13412961E-001    2.00160824E-001   -1.17387703E-007    4.74931168E-008   -7.19309911E+000   -1.32379043E+002   -7.19309911E+000
    1.60000000E+002    5.00000000E+000    9.00063648E-002    1.59365012E-001   -8.55819683E-008    1.02283494E-007   -9.17962551E+000   -1.31929032E+002   -9.17962551E+000
    1.65000000E+002    5.00000000E+000    6.70314562E-002    1.19003519E-001   -1.63372706E-009    1.26937733E-007   -1.17218950E+001   -1.32357326E+002   -1.17218950E+001
    1.70000000E+002    5.00000000E+000    4.44436676E-002    7.90607871E-002    9.76912707E-008    9.58390816E-008   -1.52780534E+001   -1.31704780E+002   -1.52780534E+001
    1.75000000E+002    5.00000000E+000    2.21447907E-002    3.94424744E-002    1.63652623E-007    1.37260480E-008   -2.13205903E+001   -1.30120956E+002   -2.13205903E+001
    1.80000000E+002    5.00000000E+000   -1.93821733E-007    9.96921149E-008    1.62635745E-007   -8.36516169E-008   -1.27662432E+002   -1.29186161E+002   -1.25347511E+002
    0.00000000E+000    1.00000000E+001   -2.07298143E-007    1.06569796E-007   -1.45151722E-007    7.46209748E-008   -1.27079492E+002   -1.30174956E+002   -1.25346782E+002
    5.00000000E+000    1.00000000E+001    2.21454722E-002    3.94416424E-002   -1.44585381E-007   -1.86442272E-008   -2.13206656E+001   -1.31155752E+002   -2.13206656E+001
    1.00000000E+001    1.00000000E+001    4.44450455E-002    7.90591411E-002   -7.81403440E-008   -9.66498576E-008   -1.52781262E+001   -1.32541388E+002   -1.52781262E+001
    1.50000000E+001    1.00000000E+001    6.70335011E-002    1.19001110E-001    1.89461015E-008   -1.23996882E-007   -1.17219647E+001   -1.32461418E+002   -1.17219647E+001
    2.00000000E+001    1.00000000E+001    9.00090152E-002    1.59361901E-001    9.68469864E-008   -9.66728476E-008   -9.17969222E+000   -1.31705647E+002   -9.17969222E+000
    2.50000000E+001    1.00000000E+001    1.13416138E-001    2.00157075E-001    1.19508300E-007   -4.10522157E-008   -7.19316316E+000   -1.32397486E+002   -7.19316316E+000
    3.00000000E+001    1.00000000E+001    1.37230947E-001    2.41301955E-001    8.37908913E-008    5.59897757E-009   -5.56162824E+000   -1.35946576E+002   -5.56162824E+000
    3.50000000E+001    1.00000000E+001    1.61349140E-001    2.82594763E-001    1.83030396E-008    1.91910856E-008   -4.18117334E+000   -1.45958460E+002   -4.18117334E+000
    4.00000000E+001    1.00000000E+001    1.85578240E-001    3.23705940E-001   -3.61314373E-008    1.47090473E-009   -2.99269342E+000   -1.43264964E+002   -2.99269342E+000
    4.50000000E+001    1.00000000E+001    2.09635174E-001    3.64175336E-001   -5.12448403E-008   -2.58554778E-008   -1.96067655E+000   -1.39251913E+002   -1.96067655E+000
    5.00000000E+001    1.00000000E+001    2.33150327E-001    4.03418847E-001   -2.59949321E-008   -3.94725849E-008   -1.06314494E+000   -1.40939375E+002   -1.06314494E+000
    5.50000000E+001    1.00000000E+001    2.55678788E-001    4.40745530E-001    1.66266284E-008   -3.11318885E-008   -2.86340319E-001   -1.43475937E+002   -2.86340319E-001
    6.00000000E+001    1.00000000E+001    2.76718926E-001    4.75385418E-001    4.66769926E-008   -1.10341524E-008    3.78321985E-001   -1.40811649E+002    3.78321985E-001
    6.50000000E+001    1.00000000E+001    2.95737696E-001    5.06527107E-001    4.62644546E-008    2.97467875E-009    9.36109377E-001   -1.41106994E+002    9.36109377E-001
    7.00000000E+001    1.00000000E+001    3.12201262E-001    5.33362969E-001    1.88328554E-008    7.04821097E-010    1.39015606E+000   -1.48925458E+002    1.39015606E+000
    7.50000000E+001    1.00000000E+001    3.25608771E-001    5.55138754E-001   -1.55588930E-008   -1.28193766E-008    1.74224205E+000   -1.48340157E+002    1.74224205E+000
    8.00000000E+001    1.00000000E+001    3.35526436E-001    5.71203399E-001   -3.44026754E-008   -2.28295848E-008    1.99331398E+000   -1.42113294E+002    1.99331398E+000
    8.50000000E+001    1.00000000E+001    3.41618711E-001    5.81054475E-001   -2.69201133E-008   -1.79771837E-008    2.14383163E+000   -1.44226779E+002    2.14383163E+000
    9.00000000E+001    1.00000000E+001    3.43673385E-001    5.84374678E-001    8.48097736E-012   -8.50875645E-013    2.19398893E+000   -2.15817446E+002    2.19398893E+000
    9.50000000E+001    1.00000000E+001    3.41617849E-001    5.81055494E-001    2.69312257E-008    1.79751974E-008    2.14383733E+000   -1.44224596E+002    2.14383733E+000
    1.00000000E+002    1.00000000E+001    3.35524746E-001    5.71205397E-001    3.44003434E-008    2.28274919E-008    1.99332536E+000   -1.42113946E+002    1.99332536E+000
    1.05000000E+002    1.00000000E+001    3.25606321E-001    5.55141653E-001    1.55449679E-008    1.28186834E-008    1.74225907E+000   -1.48344978E+002    1.74225907E+000
    1.10000000E+002    1.00000000E+001    3.12198146E-001    5.33366658E-001   -1.88483639E-008   -7.02488814E-010    1.39017867E+000   -1.48918358E+002    1.39017867E+000
    1.15000000E+002    1.00000000E+001    2.95734032E-001    5.06531445E-001   -4.62704690E-008   -2.96951849E-009    9.36137505E-001   -1.41105931E+002    9.36137505E-001
    1.20000000E+002    1.00000000E+001    2.76714848E-001    4.75390250E-001   -4.66693684E-008    1.10395048E-008    3.78355520E-001   -1.40812769E+002    3.78355520E-001
    1.25000000E+002    1.00000000E+001    2.55674439E-001    4.40750684E-001   -1.66114304E-008    3.11341218E-008   -2.86301519E-001   -1.43477214E+002   -2.86301519E-001
    1.30000000E+002    1.00000000E+001    2.33145853E-001    4.03424151E-001    2.60053543E-008    3.94706749E-008   -1.06310106E+000   -1.40938615E+002   -1.06310106E+000
    1.35000000E+002    1.00000000E+001    2.09630719E-001    3.64180622E-001    5.12405091E-008    2.58522368E-008   -1.96062780E+000   -1.39252719E+002   -1.96062780E+000
    1.40000000E+002    1.00000000E+001    1.85573937E-001    3.23711047E-001    3.61123244E-008   -1.47049718E-009   -2.99264010E+000   -1.43269556E+002   -2.99264010E+000
    1.45000000E+002    1.00000000E+001    1.61345112E-001    2.82599546E-001   -1.83257635E-008   -1.91840224E-008   -4.18111578E+000   -1.45954995E+002   -4.18111578E+000
    1.50000000E+002    1.00000000E+001    1.37227301E-001    2.41306286E-001   -8.38010738E-008   -5.58781553E-009   -5.56156684E+000   -1.35945602E+002   -5.56156684E+000
    1.55000000E+002    1.00000000E+001    1.13412965E-001    2.00160845E-001   -1.19494753E-007    4.10593756E-008   -7.19309837E+000   -1.32398207E+002   -7.19309837E+000
    1.60000000E+002    1.00000000E+001    9.00063900E-002    1.59365021E-001   -9.68110069E-008    9.66666770E-008   -9.17962457E+000   -1.31707540E+002   -9.17962457E+000
    1.65000000E+002    1.00000000E+001    6.70314825E-002    1.19003509E-001   -1.89019202E-008    1.23973006E-007   -1.17218947E+001   -1.32463515E+002   -1.17218947E+001
    1.70000000E+002    1.00000000E+001    4.44436764E-002    7.90607687E-002    7.81724838E-008    9.66128827E-008   -1.52780545E+001   -1.32541985E+002   -1.52780545E+001
    1.75000000E+002    1.00000000E+001    2.21447808E-002    3.94424646E-002    1.44589532E-007    1.86066925E-008   -2.13205929E+001   -1.31155792E+002   -2.13205929E+001
    1.80000000E+002    1.00000000E+001   -2.07258822E-007    1.06603475E-007    1.45124189E-007   -7.46445569E-008   -1.27080221E+002   -1.30175685E+002   -1.25347511E+002
    0.00000000E+000    1.50000000E+001   -2.19160117E-007    1.12667913E-007   -1.26532152E-007    6.50488497E-008   -1.26596169E+002   -1.31367382E+002   -1.25346782E+002
    5.00000000E+000    1.50000000E+001    2.21454640E-002    3.94416328E-002   -1.24750420E-007   -2.11809200E-008   -2.13206679E+001   -1.32385594E+002   -2.13206679E+001
    1.00000000E+001    1.50000000E+001    4.44450554E-002    7.90591237E-002   -6.06294376E-008   -9.27336674E-008   -1.52781271E+001   -1.33539482E+002   -1.52781271E+001
    1.50000000E+001    1.50000000E+001    6.70335268E-002    1.19001101E-001    3.06409230E-008   -1.15867526E-007   -1.17219644E+001   -1.32857061E+002   -1.17219644E+001
    2.00000000E+001    1.50000000E+001    9.00090379E-002    1.59361910E-001    1.00288991E-007   -8.72917636E-008   -9.17969131E+000   -1.31955594E+002   -9.17969131E+000
    2.50000000E+001    1.50000000E+001    1.13416137E-001    2.00157095E-001    1.14255427E-007   -3.29018926E-008   -7.19316250E+000   -1.32926337E+002   -7.19316250E+000
    3.00000000E+001    1.50000000E+001    1.37230919E-001    2.41301969E-001    7.17238825E-008    1.15621153E-008   -5.56162829E+000   -1.37205168E+002   -5.56162829E+000
    3.50000000E+001    1.50000000E+001    1.61349102E-001    2.82594759E-001    3.00838227E-009    2.39240226E-008   -4.18117394E+000   -1.46785041E+002   -4.18117394E+000
    4.00000000E+001    1.50000000E+001    1.85578217E-001    3.23705922E-001   -5.07302272E-008    7.24146049E-009   -2.99269405E+000   -1.40236922E+002   -2.99269405E+000
    4.50000000E+001    1.50000000E+001    2.09635182E-001    3.64175321E-001   -6.23234935E-008   -1.69111609E-008   -1.96067674E+000   -1.38228286E+002   -1.96067674E+000
    5.00000000E+001    1.50000000E+001    2.33150359E-001    4.03418848E-001   -3.25796919E-008   -2.69282086E-008   -1.06314463E+000   -1.41909672E+002   -1.06314463E+000
    5.50000000E+001    1.50000000E+001    2.55678822E-001    4.40745545E-001    1.39028172E-008   -1.70426171E-008   -2.86339803E-001   -1.47583748E+002   -2.86339803E-001
    6.00000000E+001    1.50000000E+001    2.76718939E-001    4.75385433E-001    4.64814845E-008    7.04566572E-010    3.78322286E-001   -1.41083262E+002    3.78322286E-001
    6.50000000E+001    1.50000000E+001    2.95737680E-001    5.06527106E-001    4.74403241E-008    8.49673929E-009    9.36109239E-001   -1.40769781E+002    9.36109239E-001
    7.00000000E+001    1.50000000E+001    3.12201228E-001    5.33362951E-001    2.07195169E-008   -1.69056992E-009    1.39015559E+000   -1.48073450E+002    1.39015559E+000
    7.50000000E+001    1.50000000E+001    3.25608741E-001    5.55138733E-001   -1.33564869E-008   -2.14825400E-008    1.74224161E+000   -1.46368771E+002    1.74224161E+000
    8.00000000E+001    1.50000000E+001    3.35526428E-001    5.71203394E-001   -3.23660599E-008   -3.32793684E-008    1.99331387E+000   -1.41095230E+002    1.99331387E+000
    8.50000000E+001    1.50000000E+001    3.41618727E-001    5.81054492E-001   -2.56688479E-008   -2.49498963E-008    2.14383192E+000   -1.43353057E+002    2.14383192E+000
    9.00000000E+001    1.50000000E+001    3.43673410E-001    5.84374705E-001    8.45350317E-012   -8.50830577E-013    2.19398939E+000   -2.15845353E+002    2.19398939E+000
    9.50000000E+001    1.50000000E+001    3.41617865E-001    5.81055511E-001    2.56798034E-008    2.49479401E-008    2.14383761E+000   -1.43351481E+002    2.14383761E+000
    1.00000000E+002    1.50000000E+001    3.35524738E-001    5.71205392E-001    3.23633257E-008    3.32773899E-008    1.99332525E+000   -1.41095852E+002    1.99332525E+000
    1.05000000E+002    1.50000000E+001    3.25606291E-001    5.55141632E-001    1.33419375E-008    2.14820667E-008    1.74225863E+000   -1.46371546E+002    1.74225863E+000
    1.10000000E+002    1.50000000E+001    3.12198112E-001    5.33366640E-001   -2.07356245E-008    1.69316193E-009    1.39017821E+000   -1.48066657E+002    1.39017821E+000
    1.15000000E+002    1.50000000E+001    2.95734016E-001    5.06531444E-001   -4.74464898E-008   -8.49147528E-009    9.36137367E-001   -1.40768855E+002    9.36137367E-001
    1.20000000E+002    1.50000000E+001    2.76714861E-001    4.75390264E-001   -4.64731428E-008   -6.99570589E-010    3.78355820E-001   -1.41084835E+002    3.78355820E-001
    1.25000000E+002    1.50000000E+001    2.55674473E-001    4.40750699E-001   -1.38858649E-008    1.70437359E-008   -2.86301003E-001   -1.47587637E+002   -2.86301003E-001
    1.30000000E+002    1.50000000E+001    2.33145886E-001    4.03424152E-001    3.25926263E-008    2.69243009E-008   -1.06310075E+000   -1.41908135E+002   -1.06310075E+000
    1.35000000E+002    1.50000000E+001    2.09630726E-001    3.64180606E-001    6.23217042E-008    1.69052180E-008   -1.96062800E+000   -1.38228727E+002   -1.96062800E+000
    1.40000000E+002    1.50000000E+001    1.85573914E-001    3.23711029E-001    5.07127404E-008   -7.24396266E-009   -2.99264073E+000   -1.40239796E+002   -2.99264073E+000
    1.45000000E+002    1.50000000E+001    1.61345073E-001    2.82599543E-001   -3.03118011E-009   -2.39193832E-008   -4.18111638E+000   -1.46785670E+002   -4.18111638E+000
    1.50000000E+002    1.50000000E+001    1.37227273E-001    2.41306300E-001   -7.17361085E-008   -1.15522045E-008   -5.56156688E+000   -1.37203913E+002   -5.56156688E+000
    1.55000000E+002    1.50000000E+001    1.13412964E-001    2.00160865E-001   -1.14245481E-007    3.29094480E-008   -7.19309772E+000   -1.32926883E+002   -7.19309772E+000
    1.60000000E+002    1.50000000E+001    9.00064127E-002    1.59365030E-001   -1.00257163E-007    8.72877483E-008   -9.17962366E+000   -1.31957335E+002   -9.17962366E+000
    1.65000000E+002    1.50000000E+001    6.70315082E-002    1.19003500E-001   -3.06001579E-008    1.15847257E-007   -1.17218944E+001   -1.32859236E+002   -1.17218944E+001
    1.70000000E+002    1.50000000E+001    4.44436863E-002    7.90607513E-002    6.06600520E-008    9.27010545E-008   -1.52780555E+001   -1.33540308E+002   -1.52780555E+001
    1.75000000E+002    1.50000000E+001    2.21447726E-002    3.94424549E-002    1.24755595E-007    2.11475578E-008   -2.13205953E+001   -1.32385627E+002   -2.13205953E+001
    1.80000000E+002    1.50000000E+001   -2.19118546E-007    1.12703519E-007    1.26508152E-007   -6.50694068E-008   -1.26596899E+002   -1.31368111E+002   -1.25347511E+002
    0.00000000E+000    2.00000000E+001   -2.29354150E-007    1.17908558E-007   -1.06949597E-007    5.49816636E-008   -1.26201268E+002   -1.32827817E+002   -1.25346782E+002
    5.00000000E+000    2.00000000E+001    2.21454574E-002    3.94416237E-002   -1.04396115E-007   -2.15033922E-008   -2.13206701E+001   -1.33875716E+002   -2.13206701E+001
    1.00000000E+001    2.00000000E+001    4.44450656E-002    7.90591079E-002   -4.54608970E-008   -8.44939786E-008   -1.52781280E+001   -1.34789185E+002   -1.52781280E+001
    1.50000000E+001    2.00000000E+001    6.70335509E-002    1.19001094E-001    3.65573629E-008   -1.03244968E-007   -1.17219640E+001   -1.33639508E+002   -1.17219640E+001
    2.00000000E+001    2.00000000E+001    9.00090575E-002    1.59361919E-001    9.62365388E-008   -7.51483435E-008   -9.17969047E+000   -1.32695449E+002   -9.17969047E+000
    2.50000000E+001    2.00000000E+001    1.13416133E-001    2.00157114E-001    1.02777345E-007   -2.43225344E-008   -7.19316194E+000   -1.33955255E+002   -7.19316194E+000
    3.00000000E+001    2.00000000E+001    1.37230889E-001    2.41301982E-001    5.71001774E-008    1.65955096E-008   -5.56162840E+000   -1.38944932E+002   -5.56162840E+000
    3.50000000E+001    2.00000000E+001    1.61349063E-001    2.82594756E-001   -1.08470372E-008    2.81013141E-008   -4.18117453E+000   -1.44852150E+002   -4.18117453E+000
    4.00000000E+001    2.00000000E+001    1.85578195E-001    3.23705907E-001   -6.18272577E-008    1.40827486E-008   -2.99269460E+000   -1.38386591E+002   -2.99269460E+000
    4.50000000E+001    2.00000000E+001    2.09635191E-001    3.64175310E-001   -7.08478653E-008   -5.21870301E-009   -1.96067684E+000   -1.37399824E+002   -1.96067684E+000
    5.00000000E+001    2.00000000E+001    2.33150393E-001    4.03418852E-001   -3.98759683E-008   -1.08223314E-008   -1.06314424E+000   -1.42106976E+002   -1.06314424E+000
    5.50000000E+001    2.00000000E+001    2.55678858E-001    4.40745562E-001    6.82693758E-009    6.19704815E-010   -2.86339255E-001   -1.57709703E+002   -2.86339255E-001
    6.00000000E+001    2.00000000E+001    2.76718954E-001    4.75385445E-001    3.99000458E-008    1.61052330E-008    3.78322570E-001   -1.41754876E+002    3.78322570E-001
    6.50000000E+001    2.00000000E+001    2.95737668E-001    5.06527099E-001    4.27048182E-008    1.86750154E-008    9.36109060E-001   -1.41060347E+002    9.36109060E-001
    7.00000000E+001    2.00000000E+001    3.12201200E-001    5.33362927E-001    1.91242220E-008    2.37927375E-009    1.39015510E+000   -1.48731478E+002    1.39015510E+000
    7.50000000E+001    2.00000000E+001    3.25608718E-001    5.55138709E-001   -1.17699352E-008   -2.22132480E-008    1.74224117E+000   -1.46422966E+002    1.74224117E+000
    8.00000000E+001    2.00000000E+001    3.35526425E-001    5.71203391E-001   -2.91581541E-008   -3.61530854E-008    1.99331382E+000   -1.41090868E+002    1.99331382E+000
    8.50000000E+001    2.00000000E+001    3.41618747E-001    5.81054515E-001   -2.32014007E-008   -2.72295285E-008    2.14383230E+000   -1.43358601E+002    2.14383230E+000
    9.00000000E+001    2.00000000E+001    3.43673439E-001    5.84374740E-001    7.78112661E-012   -5.29908194E-013    2.19398997E+000   -2.16588915E+002    2.19398997E+000
    9.50000000E+001    2.00000000E+001    3.41617885E-001    5.81055534E-001    2.32112958E-008    2.72281570E-008    2.14383800E+000   -1.43357296E+002    2.14383800E+000
    1.00000000E+002    2.00000000E+001    3.35524736E-001    5.71205389E-001    2.91550303E-008    3.61515099E-008    1.99332520E+000   -1.41091464E+002    1.99332520E+000
    1.05000000E+002    2.00000000E+001    3.25606268E-001    5.55141609E-001    1.17556515E-008    2.22128594E-008    1.74225819E+000   -1.46425394E+002    1.74225819E+000
    1.10000000E+002    2.00000000E+001    3.12198084E-001    5.33366615E-001   -1.91397297E-008   -2.37702517E-009    1.39017772E+000   -1.48724670E+002    1.39017772E+000